Title: **.subckt powerp
Date: Wed Dec 15 16:18:28  2021
Plotname: Operating Point
Flags: real
No. Variables: 1964
No. Points: 1       
Variables:
	0	v(net1)	voltage
	1	v(vdd)	voltage
	2	v(m.xm280.msky130_fd_pr__pfet_01v8#dbody)	voltage
	3	v(m.xm280.msky130_fd_pr__pfet_01v8#body)	voltage
	4	v(m.xm280.msky130_fd_pr__pfet_01v8#sbody)	voltage
	5	v(m.xm279.msky130_fd_pr__pfet_01v8#dbody)	voltage
	6	v(m.xm279.msky130_fd_pr__pfet_01v8#body)	voltage
	7	v(m.xm279.msky130_fd_pr__pfet_01v8#sbody)	voltage
	8	v(m.xm278.msky130_fd_pr__pfet_01v8#dbody)	voltage
	9	v(m.xm278.msky130_fd_pr__pfet_01v8#body)	voltage
	10	v(m.xm278.msky130_fd_pr__pfet_01v8#sbody)	voltage
	11	v(m.xm277.msky130_fd_pr__pfet_01v8#dbody)	voltage
	12	v(m.xm277.msky130_fd_pr__pfet_01v8#body)	voltage
	13	v(m.xm277.msky130_fd_pr__pfet_01v8#sbody)	voltage
	14	v(m.xm276.msky130_fd_pr__pfet_01v8#dbody)	voltage
	15	v(m.xm276.msky130_fd_pr__pfet_01v8#body)	voltage
	16	v(m.xm276.msky130_fd_pr__pfet_01v8#sbody)	voltage
	17	v(m.xm275.msky130_fd_pr__pfet_01v8#dbody)	voltage
	18	v(m.xm275.msky130_fd_pr__pfet_01v8#body)	voltage
	19	v(m.xm275.msky130_fd_pr__pfet_01v8#sbody)	voltage
	20	v(m.xm274.msky130_fd_pr__pfet_01v8#dbody)	voltage
	21	v(m.xm274.msky130_fd_pr__pfet_01v8#body)	voltage
	22	v(m.xm274.msky130_fd_pr__pfet_01v8#sbody)	voltage
	23	v(m.xm273.msky130_fd_pr__pfet_01v8#dbody)	voltage
	24	v(m.xm273.msky130_fd_pr__pfet_01v8#body)	voltage
	25	v(m.xm273.msky130_fd_pr__pfet_01v8#sbody)	voltage
	26	v(m.xm272.msky130_fd_pr__pfet_01v8#dbody)	voltage
	27	v(m.xm272.msky130_fd_pr__pfet_01v8#body)	voltage
	28	v(m.xm272.msky130_fd_pr__pfet_01v8#sbody)	voltage
	29	v(m.xm271.msky130_fd_pr__pfet_01v8#dbody)	voltage
	30	v(m.xm271.msky130_fd_pr__pfet_01v8#body)	voltage
	31	v(m.xm271.msky130_fd_pr__pfet_01v8#sbody)	voltage
	32	v(m.xm270.msky130_fd_pr__pfet_01v8#dbody)	voltage
	33	v(m.xm270.msky130_fd_pr__pfet_01v8#body)	voltage
	34	v(m.xm270.msky130_fd_pr__pfet_01v8#sbody)	voltage
	35	v(m.xm269.msky130_fd_pr__pfet_01v8#dbody)	voltage
	36	v(m.xm269.msky130_fd_pr__pfet_01v8#body)	voltage
	37	v(m.xm269.msky130_fd_pr__pfet_01v8#sbody)	voltage
	38	v(m.xm268.msky130_fd_pr__pfet_01v8#dbody)	voltage
	39	v(m.xm268.msky130_fd_pr__pfet_01v8#body)	voltage
	40	v(m.xm268.msky130_fd_pr__pfet_01v8#sbody)	voltage
	41	v(m.xm267.msky130_fd_pr__pfet_01v8#dbody)	voltage
	42	v(m.xm267.msky130_fd_pr__pfet_01v8#body)	voltage
	43	v(m.xm267.msky130_fd_pr__pfet_01v8#sbody)	voltage
	44	v(m.xm266.msky130_fd_pr__pfet_01v8#dbody)	voltage
	45	v(m.xm266.msky130_fd_pr__pfet_01v8#body)	voltage
	46	v(m.xm266.msky130_fd_pr__pfet_01v8#sbody)	voltage
	47	v(m.xm265.msky130_fd_pr__pfet_01v8#dbody)	voltage
	48	v(m.xm265.msky130_fd_pr__pfet_01v8#body)	voltage
	49	v(m.xm265.msky130_fd_pr__pfet_01v8#sbody)	voltage
	50	v(m.xm264.msky130_fd_pr__pfet_01v8#dbody)	voltage
	51	v(m.xm264.msky130_fd_pr__pfet_01v8#body)	voltage
	52	v(m.xm264.msky130_fd_pr__pfet_01v8#sbody)	voltage
	53	v(m.xm263.msky130_fd_pr__pfet_01v8#dbody)	voltage
	54	v(m.xm263.msky130_fd_pr__pfet_01v8#body)	voltage
	55	v(m.xm263.msky130_fd_pr__pfet_01v8#sbody)	voltage
	56	v(m.xm262.msky130_fd_pr__pfet_01v8#dbody)	voltage
	57	v(m.xm262.msky130_fd_pr__pfet_01v8#body)	voltage
	58	v(m.xm262.msky130_fd_pr__pfet_01v8#sbody)	voltage
	59	v(m.xm261.msky130_fd_pr__pfet_01v8#dbody)	voltage
	60	v(m.xm261.msky130_fd_pr__pfet_01v8#body)	voltage
	61	v(m.xm261.msky130_fd_pr__pfet_01v8#sbody)	voltage
	62	v(m.xm260.msky130_fd_pr__pfet_01v8#dbody)	voltage
	63	v(m.xm260.msky130_fd_pr__pfet_01v8#body)	voltage
	64	v(m.xm260.msky130_fd_pr__pfet_01v8#sbody)	voltage
	65	v(m.xm259.msky130_fd_pr__pfet_01v8#dbody)	voltage
	66	v(m.xm259.msky130_fd_pr__pfet_01v8#body)	voltage
	67	v(m.xm259.msky130_fd_pr__pfet_01v8#sbody)	voltage
	68	v(m.xm258.msky130_fd_pr__pfet_01v8#dbody)	voltage
	69	v(m.xm258.msky130_fd_pr__pfet_01v8#body)	voltage
	70	v(m.xm258.msky130_fd_pr__pfet_01v8#sbody)	voltage
	71	v(m.xm257.msky130_fd_pr__pfet_01v8#dbody)	voltage
	72	v(m.xm257.msky130_fd_pr__pfet_01v8#body)	voltage
	73	v(m.xm257.msky130_fd_pr__pfet_01v8#sbody)	voltage
	74	v(m.xm256.msky130_fd_pr__pfet_01v8#dbody)	voltage
	75	v(m.xm256.msky130_fd_pr__pfet_01v8#body)	voltage
	76	v(m.xm256.msky130_fd_pr__pfet_01v8#sbody)	voltage
	77	v(m.xm255.msky130_fd_pr__pfet_01v8#dbody)	voltage
	78	v(m.xm255.msky130_fd_pr__pfet_01v8#body)	voltage
	79	v(m.xm255.msky130_fd_pr__pfet_01v8#sbody)	voltage
	80	v(m.xm254.msky130_fd_pr__pfet_01v8#dbody)	voltage
	81	v(m.xm254.msky130_fd_pr__pfet_01v8#body)	voltage
	82	v(m.xm254.msky130_fd_pr__pfet_01v8#sbody)	voltage
	83	v(m.xm253.msky130_fd_pr__pfet_01v8#dbody)	voltage
	84	v(m.xm253.msky130_fd_pr__pfet_01v8#body)	voltage
	85	v(m.xm253.msky130_fd_pr__pfet_01v8#sbody)	voltage
	86	v(m.xm252.msky130_fd_pr__pfet_01v8#dbody)	voltage
	87	v(m.xm252.msky130_fd_pr__pfet_01v8#body)	voltage
	88	v(m.xm252.msky130_fd_pr__pfet_01v8#sbody)	voltage
	89	v(m.xm251.msky130_fd_pr__pfet_01v8#dbody)	voltage
	90	v(m.xm251.msky130_fd_pr__pfet_01v8#body)	voltage
	91	v(m.xm251.msky130_fd_pr__pfet_01v8#sbody)	voltage
	92	v(m.xm250.msky130_fd_pr__pfet_01v8#dbody)	voltage
	93	v(m.xm250.msky130_fd_pr__pfet_01v8#body)	voltage
	94	v(m.xm250.msky130_fd_pr__pfet_01v8#sbody)	voltage
	95	v(m.xm249.msky130_fd_pr__pfet_01v8#dbody)	voltage
	96	v(m.xm249.msky130_fd_pr__pfet_01v8#body)	voltage
	97	v(m.xm249.msky130_fd_pr__pfet_01v8#sbody)	voltage
	98	v(m.xm248.msky130_fd_pr__pfet_01v8#dbody)	voltage
	99	v(m.xm248.msky130_fd_pr__pfet_01v8#body)	voltage
	100	v(m.xm248.msky130_fd_pr__pfet_01v8#sbody)	voltage
	101	v(m.xm247.msky130_fd_pr__pfet_01v8#dbody)	voltage
	102	v(m.xm247.msky130_fd_pr__pfet_01v8#body)	voltage
	103	v(m.xm247.msky130_fd_pr__pfet_01v8#sbody)	voltage
	104	v(m.xm246.msky130_fd_pr__pfet_01v8#dbody)	voltage
	105	v(m.xm246.msky130_fd_pr__pfet_01v8#body)	voltage
	106	v(m.xm246.msky130_fd_pr__pfet_01v8#sbody)	voltage
	107	v(m.xm245.msky130_fd_pr__pfet_01v8#dbody)	voltage
	108	v(m.xm245.msky130_fd_pr__pfet_01v8#body)	voltage
	109	v(m.xm245.msky130_fd_pr__pfet_01v8#sbody)	voltage
	110	v(m.xm244.msky130_fd_pr__pfet_01v8#dbody)	voltage
	111	v(m.xm244.msky130_fd_pr__pfet_01v8#body)	voltage
	112	v(m.xm244.msky130_fd_pr__pfet_01v8#sbody)	voltage
	113	v(m.xm243.msky130_fd_pr__pfet_01v8#dbody)	voltage
	114	v(m.xm243.msky130_fd_pr__pfet_01v8#body)	voltage
	115	v(m.xm243.msky130_fd_pr__pfet_01v8#sbody)	voltage
	116	v(m.xm242.msky130_fd_pr__pfet_01v8#dbody)	voltage
	117	v(m.xm242.msky130_fd_pr__pfet_01v8#body)	voltage
	118	v(m.xm242.msky130_fd_pr__pfet_01v8#sbody)	voltage
	119	v(m.xm241.msky130_fd_pr__pfet_01v8#dbody)	voltage
	120	v(m.xm241.msky130_fd_pr__pfet_01v8#body)	voltage
	121	v(m.xm241.msky130_fd_pr__pfet_01v8#sbody)	voltage
	122	v(m.xm240.msky130_fd_pr__pfet_01v8#dbody)	voltage
	123	v(m.xm240.msky130_fd_pr__pfet_01v8#body)	voltage
	124	v(m.xm240.msky130_fd_pr__pfet_01v8#sbody)	voltage
	125	v(m.xm239.msky130_fd_pr__pfet_01v8#dbody)	voltage
	126	v(m.xm239.msky130_fd_pr__pfet_01v8#body)	voltage
	127	v(m.xm239.msky130_fd_pr__pfet_01v8#sbody)	voltage
	128	v(m.xm238.msky130_fd_pr__pfet_01v8#dbody)	voltage
	129	v(m.xm238.msky130_fd_pr__pfet_01v8#body)	voltage
	130	v(m.xm238.msky130_fd_pr__pfet_01v8#sbody)	voltage
	131	v(m.xm237.msky130_fd_pr__pfet_01v8#dbody)	voltage
	132	v(m.xm237.msky130_fd_pr__pfet_01v8#body)	voltage
	133	v(m.xm237.msky130_fd_pr__pfet_01v8#sbody)	voltage
	134	v(m.xm236.msky130_fd_pr__pfet_01v8#dbody)	voltage
	135	v(m.xm236.msky130_fd_pr__pfet_01v8#body)	voltage
	136	v(m.xm236.msky130_fd_pr__pfet_01v8#sbody)	voltage
	137	v(m.xm235.msky130_fd_pr__pfet_01v8#dbody)	voltage
	138	v(m.xm235.msky130_fd_pr__pfet_01v8#body)	voltage
	139	v(m.xm235.msky130_fd_pr__pfet_01v8#sbody)	voltage
	140	v(m.xm234.msky130_fd_pr__pfet_01v8#dbody)	voltage
	141	v(m.xm234.msky130_fd_pr__pfet_01v8#body)	voltage
	142	v(m.xm234.msky130_fd_pr__pfet_01v8#sbody)	voltage
	143	v(m.xm233.msky130_fd_pr__pfet_01v8#dbody)	voltage
	144	v(m.xm233.msky130_fd_pr__pfet_01v8#body)	voltage
	145	v(m.xm233.msky130_fd_pr__pfet_01v8#sbody)	voltage
	146	v(m.xm232.msky130_fd_pr__pfet_01v8#dbody)	voltage
	147	v(m.xm232.msky130_fd_pr__pfet_01v8#body)	voltage
	148	v(m.xm232.msky130_fd_pr__pfet_01v8#sbody)	voltage
	149	v(m.xm231.msky130_fd_pr__pfet_01v8#dbody)	voltage
	150	v(m.xm231.msky130_fd_pr__pfet_01v8#body)	voltage
	151	v(m.xm231.msky130_fd_pr__pfet_01v8#sbody)	voltage
	152	v(m.xm230.msky130_fd_pr__pfet_01v8#dbody)	voltage
	153	v(m.xm230.msky130_fd_pr__pfet_01v8#body)	voltage
	154	v(m.xm230.msky130_fd_pr__pfet_01v8#sbody)	voltage
	155	v(m.xm229.msky130_fd_pr__pfet_01v8#dbody)	voltage
	156	v(m.xm229.msky130_fd_pr__pfet_01v8#body)	voltage
	157	v(m.xm229.msky130_fd_pr__pfet_01v8#sbody)	voltage
	158	v(m.xm228.msky130_fd_pr__pfet_01v8#dbody)	voltage
	159	v(m.xm228.msky130_fd_pr__pfet_01v8#body)	voltage
	160	v(m.xm228.msky130_fd_pr__pfet_01v8#sbody)	voltage
	161	v(m.xm227.msky130_fd_pr__pfet_01v8#dbody)	voltage
	162	v(m.xm227.msky130_fd_pr__pfet_01v8#body)	voltage
	163	v(m.xm227.msky130_fd_pr__pfet_01v8#sbody)	voltage
	164	v(m.xm226.msky130_fd_pr__pfet_01v8#dbody)	voltage
	165	v(m.xm226.msky130_fd_pr__pfet_01v8#body)	voltage
	166	v(m.xm226.msky130_fd_pr__pfet_01v8#sbody)	voltage
	167	v(m.xm225.msky130_fd_pr__pfet_01v8#dbody)	voltage
	168	v(m.xm225.msky130_fd_pr__pfet_01v8#body)	voltage
	169	v(m.xm225.msky130_fd_pr__pfet_01v8#sbody)	voltage
	170	v(m.xm224.msky130_fd_pr__pfet_01v8#dbody)	voltage
	171	v(m.xm224.msky130_fd_pr__pfet_01v8#body)	voltage
	172	v(m.xm224.msky130_fd_pr__pfet_01v8#sbody)	voltage
	173	v(m.xm223.msky130_fd_pr__pfet_01v8#dbody)	voltage
	174	v(m.xm223.msky130_fd_pr__pfet_01v8#body)	voltage
	175	v(m.xm223.msky130_fd_pr__pfet_01v8#sbody)	voltage
	176	v(m.xm222.msky130_fd_pr__pfet_01v8#dbody)	voltage
	177	v(m.xm222.msky130_fd_pr__pfet_01v8#body)	voltage
	178	v(m.xm222.msky130_fd_pr__pfet_01v8#sbody)	voltage
	179	v(m.xm221.msky130_fd_pr__pfet_01v8#dbody)	voltage
	180	v(m.xm221.msky130_fd_pr__pfet_01v8#body)	voltage
	181	v(m.xm221.msky130_fd_pr__pfet_01v8#sbody)	voltage
	182	v(m.xm220.msky130_fd_pr__pfet_01v8#dbody)	voltage
	183	v(m.xm220.msky130_fd_pr__pfet_01v8#body)	voltage
	184	v(m.xm220.msky130_fd_pr__pfet_01v8#sbody)	voltage
	185	v(m.xm219.msky130_fd_pr__pfet_01v8#dbody)	voltage
	186	v(m.xm219.msky130_fd_pr__pfet_01v8#body)	voltage
	187	v(m.xm219.msky130_fd_pr__pfet_01v8#sbody)	voltage
	188	v(m.xm218.msky130_fd_pr__pfet_01v8#dbody)	voltage
	189	v(m.xm218.msky130_fd_pr__pfet_01v8#body)	voltage
	190	v(m.xm218.msky130_fd_pr__pfet_01v8#sbody)	voltage
	191	v(m.xm217.msky130_fd_pr__pfet_01v8#dbody)	voltage
	192	v(m.xm217.msky130_fd_pr__pfet_01v8#body)	voltage
	193	v(m.xm217.msky130_fd_pr__pfet_01v8#sbody)	voltage
	194	v(m.xm216.msky130_fd_pr__pfet_01v8#dbody)	voltage
	195	v(m.xm216.msky130_fd_pr__pfet_01v8#body)	voltage
	196	v(m.xm216.msky130_fd_pr__pfet_01v8#sbody)	voltage
	197	v(m.xm215.msky130_fd_pr__pfet_01v8#dbody)	voltage
	198	v(m.xm215.msky130_fd_pr__pfet_01v8#body)	voltage
	199	v(m.xm215.msky130_fd_pr__pfet_01v8#sbody)	voltage
	200	v(m.xm214.msky130_fd_pr__pfet_01v8#dbody)	voltage
	201	v(m.xm214.msky130_fd_pr__pfet_01v8#body)	voltage
	202	v(m.xm214.msky130_fd_pr__pfet_01v8#sbody)	voltage
	203	v(m.xm213.msky130_fd_pr__pfet_01v8#dbody)	voltage
	204	v(m.xm213.msky130_fd_pr__pfet_01v8#body)	voltage
	205	v(m.xm213.msky130_fd_pr__pfet_01v8#sbody)	voltage
	206	v(m.xm212.msky130_fd_pr__pfet_01v8#dbody)	voltage
	207	v(m.xm212.msky130_fd_pr__pfet_01v8#body)	voltage
	208	v(m.xm212.msky130_fd_pr__pfet_01v8#sbody)	voltage
	209	v(m.xm211.msky130_fd_pr__pfet_01v8#dbody)	voltage
	210	v(m.xm211.msky130_fd_pr__pfet_01v8#body)	voltage
	211	v(m.xm211.msky130_fd_pr__pfet_01v8#sbody)	voltage
	212	v(m.xm210.msky130_fd_pr__pfet_01v8#dbody)	voltage
	213	v(m.xm210.msky130_fd_pr__pfet_01v8#body)	voltage
	214	v(m.xm210.msky130_fd_pr__pfet_01v8#sbody)	voltage
	215	v(m.xm209.msky130_fd_pr__pfet_01v8#dbody)	voltage
	216	v(m.xm209.msky130_fd_pr__pfet_01v8#body)	voltage
	217	v(m.xm209.msky130_fd_pr__pfet_01v8#sbody)	voltage
	218	v(m.xm208.msky130_fd_pr__pfet_01v8#dbody)	voltage
	219	v(m.xm208.msky130_fd_pr__pfet_01v8#body)	voltage
	220	v(m.xm208.msky130_fd_pr__pfet_01v8#sbody)	voltage
	221	v(m.xm207.msky130_fd_pr__pfet_01v8#dbody)	voltage
	222	v(m.xm207.msky130_fd_pr__pfet_01v8#body)	voltage
	223	v(m.xm207.msky130_fd_pr__pfet_01v8#sbody)	voltage
	224	v(m.xm206.msky130_fd_pr__pfet_01v8#dbody)	voltage
	225	v(m.xm206.msky130_fd_pr__pfet_01v8#body)	voltage
	226	v(m.xm206.msky130_fd_pr__pfet_01v8#sbody)	voltage
	227	v(m.xm205.msky130_fd_pr__pfet_01v8#dbody)	voltage
	228	v(m.xm205.msky130_fd_pr__pfet_01v8#body)	voltage
	229	v(m.xm205.msky130_fd_pr__pfet_01v8#sbody)	voltage
	230	v(m.xm204.msky130_fd_pr__pfet_01v8#dbody)	voltage
	231	v(m.xm204.msky130_fd_pr__pfet_01v8#body)	voltage
	232	v(m.xm204.msky130_fd_pr__pfet_01v8#sbody)	voltage
	233	v(m.xm203.msky130_fd_pr__pfet_01v8#dbody)	voltage
	234	v(m.xm203.msky130_fd_pr__pfet_01v8#body)	voltage
	235	v(m.xm203.msky130_fd_pr__pfet_01v8#sbody)	voltage
	236	v(m.xm202.msky130_fd_pr__pfet_01v8#dbody)	voltage
	237	v(m.xm202.msky130_fd_pr__pfet_01v8#body)	voltage
	238	v(m.xm202.msky130_fd_pr__pfet_01v8#sbody)	voltage
	239	v(m.xm201.msky130_fd_pr__pfet_01v8#dbody)	voltage
	240	v(m.xm201.msky130_fd_pr__pfet_01v8#body)	voltage
	241	v(m.xm201.msky130_fd_pr__pfet_01v8#sbody)	voltage
	242	v(m.xm200.msky130_fd_pr__pfet_01v8#dbody)	voltage
	243	v(m.xm200.msky130_fd_pr__pfet_01v8#body)	voltage
	244	v(m.xm200.msky130_fd_pr__pfet_01v8#sbody)	voltage
	245	v(m.xm199.msky130_fd_pr__pfet_01v8#dbody)	voltage
	246	v(m.xm199.msky130_fd_pr__pfet_01v8#body)	voltage
	247	v(m.xm199.msky130_fd_pr__pfet_01v8#sbody)	voltage
	248	v(m.xm198.msky130_fd_pr__pfet_01v8#dbody)	voltage
	249	v(m.xm198.msky130_fd_pr__pfet_01v8#body)	voltage
	250	v(m.xm198.msky130_fd_pr__pfet_01v8#sbody)	voltage
	251	v(m.xm197.msky130_fd_pr__pfet_01v8#dbody)	voltage
	252	v(m.xm197.msky130_fd_pr__pfet_01v8#body)	voltage
	253	v(m.xm197.msky130_fd_pr__pfet_01v8#sbody)	voltage
	254	v(m.xm196.msky130_fd_pr__pfet_01v8#dbody)	voltage
	255	v(m.xm196.msky130_fd_pr__pfet_01v8#body)	voltage
	256	v(m.xm196.msky130_fd_pr__pfet_01v8#sbody)	voltage
	257	v(m.xm195.msky130_fd_pr__pfet_01v8#dbody)	voltage
	258	v(m.xm195.msky130_fd_pr__pfet_01v8#body)	voltage
	259	v(m.xm195.msky130_fd_pr__pfet_01v8#sbody)	voltage
	260	v(m.xm194.msky130_fd_pr__pfet_01v8#dbody)	voltage
	261	v(m.xm194.msky130_fd_pr__pfet_01v8#body)	voltage
	262	v(m.xm194.msky130_fd_pr__pfet_01v8#sbody)	voltage
	263	v(m.xm193.msky130_fd_pr__pfet_01v8#dbody)	voltage
	264	v(m.xm193.msky130_fd_pr__pfet_01v8#body)	voltage
	265	v(m.xm193.msky130_fd_pr__pfet_01v8#sbody)	voltage
	266	v(m.xm192.msky130_fd_pr__pfet_01v8#dbody)	voltage
	267	v(m.xm192.msky130_fd_pr__pfet_01v8#body)	voltage
	268	v(m.xm192.msky130_fd_pr__pfet_01v8#sbody)	voltage
	269	v(m.xm191.msky130_fd_pr__pfet_01v8#dbody)	voltage
	270	v(m.xm191.msky130_fd_pr__pfet_01v8#body)	voltage
	271	v(m.xm191.msky130_fd_pr__pfet_01v8#sbody)	voltage
	272	v(m.xm190.msky130_fd_pr__pfet_01v8#dbody)	voltage
	273	v(m.xm190.msky130_fd_pr__pfet_01v8#body)	voltage
	274	v(m.xm190.msky130_fd_pr__pfet_01v8#sbody)	voltage
	275	v(m.xm189.msky130_fd_pr__pfet_01v8#dbody)	voltage
	276	v(m.xm189.msky130_fd_pr__pfet_01v8#body)	voltage
	277	v(m.xm189.msky130_fd_pr__pfet_01v8#sbody)	voltage
	278	v(m.xm188.msky130_fd_pr__pfet_01v8#dbody)	voltage
	279	v(m.xm188.msky130_fd_pr__pfet_01v8#body)	voltage
	280	v(m.xm188.msky130_fd_pr__pfet_01v8#sbody)	voltage
	281	v(m.xm187.msky130_fd_pr__pfet_01v8#dbody)	voltage
	282	v(m.xm187.msky130_fd_pr__pfet_01v8#body)	voltage
	283	v(m.xm187.msky130_fd_pr__pfet_01v8#sbody)	voltage
	284	v(m.xm186.msky130_fd_pr__pfet_01v8#dbody)	voltage
	285	v(m.xm186.msky130_fd_pr__pfet_01v8#body)	voltage
	286	v(m.xm186.msky130_fd_pr__pfet_01v8#sbody)	voltage
	287	v(m.xm185.msky130_fd_pr__pfet_01v8#dbody)	voltage
	288	v(m.xm185.msky130_fd_pr__pfet_01v8#body)	voltage
	289	v(m.xm185.msky130_fd_pr__pfet_01v8#sbody)	voltage
	290	v(m.xm184.msky130_fd_pr__pfet_01v8#dbody)	voltage
	291	v(m.xm184.msky130_fd_pr__pfet_01v8#body)	voltage
	292	v(m.xm184.msky130_fd_pr__pfet_01v8#sbody)	voltage
	293	v(m.xm183.msky130_fd_pr__pfet_01v8#dbody)	voltage
	294	v(m.xm183.msky130_fd_pr__pfet_01v8#body)	voltage
	295	v(m.xm183.msky130_fd_pr__pfet_01v8#sbody)	voltage
	296	v(m.xm182.msky130_fd_pr__pfet_01v8#dbody)	voltage
	297	v(m.xm182.msky130_fd_pr__pfet_01v8#body)	voltage
	298	v(m.xm182.msky130_fd_pr__pfet_01v8#sbody)	voltage
	299	v(m.xm181.msky130_fd_pr__pfet_01v8#dbody)	voltage
	300	v(m.xm181.msky130_fd_pr__pfet_01v8#body)	voltage
	301	v(m.xm181.msky130_fd_pr__pfet_01v8#sbody)	voltage
	302	v(m.xm180.msky130_fd_pr__pfet_01v8#dbody)	voltage
	303	v(m.xm180.msky130_fd_pr__pfet_01v8#body)	voltage
	304	v(m.xm180.msky130_fd_pr__pfet_01v8#sbody)	voltage
	305	v(m.xm179.msky130_fd_pr__pfet_01v8#dbody)	voltage
	306	v(m.xm179.msky130_fd_pr__pfet_01v8#body)	voltage
	307	v(m.xm179.msky130_fd_pr__pfet_01v8#sbody)	voltage
	308	v(m.xm178.msky130_fd_pr__pfet_01v8#dbody)	voltage
	309	v(m.xm178.msky130_fd_pr__pfet_01v8#body)	voltage
	310	v(m.xm178.msky130_fd_pr__pfet_01v8#sbody)	voltage
	311	v(m.xm177.msky130_fd_pr__pfet_01v8#dbody)	voltage
	312	v(m.xm177.msky130_fd_pr__pfet_01v8#body)	voltage
	313	v(m.xm177.msky130_fd_pr__pfet_01v8#sbody)	voltage
	314	v(m.xm176.msky130_fd_pr__pfet_01v8#dbody)	voltage
	315	v(m.xm176.msky130_fd_pr__pfet_01v8#body)	voltage
	316	v(m.xm176.msky130_fd_pr__pfet_01v8#sbody)	voltage
	317	v(m.xm175.msky130_fd_pr__pfet_01v8#dbody)	voltage
	318	v(m.xm175.msky130_fd_pr__pfet_01v8#body)	voltage
	319	v(m.xm175.msky130_fd_pr__pfet_01v8#sbody)	voltage
	320	v(m.xm174.msky130_fd_pr__pfet_01v8#dbody)	voltage
	321	v(m.xm174.msky130_fd_pr__pfet_01v8#body)	voltage
	322	v(m.xm174.msky130_fd_pr__pfet_01v8#sbody)	voltage
	323	v(m.xm173.msky130_fd_pr__pfet_01v8#dbody)	voltage
	324	v(m.xm173.msky130_fd_pr__pfet_01v8#body)	voltage
	325	v(m.xm173.msky130_fd_pr__pfet_01v8#sbody)	voltage
	326	v(m.xm172.msky130_fd_pr__pfet_01v8#dbody)	voltage
	327	v(m.xm172.msky130_fd_pr__pfet_01v8#body)	voltage
	328	v(m.xm172.msky130_fd_pr__pfet_01v8#sbody)	voltage
	329	v(m.xm171.msky130_fd_pr__pfet_01v8#dbody)	voltage
	330	v(m.xm171.msky130_fd_pr__pfet_01v8#body)	voltage
	331	v(m.xm171.msky130_fd_pr__pfet_01v8#sbody)	voltage
	332	v(m.xm170.msky130_fd_pr__pfet_01v8#dbody)	voltage
	333	v(m.xm170.msky130_fd_pr__pfet_01v8#body)	voltage
	334	v(m.xm170.msky130_fd_pr__pfet_01v8#sbody)	voltage
	335	v(m.xm169.msky130_fd_pr__pfet_01v8#dbody)	voltage
	336	v(m.xm169.msky130_fd_pr__pfet_01v8#body)	voltage
	337	v(m.xm169.msky130_fd_pr__pfet_01v8#sbody)	voltage
	338	v(m.xm168.msky130_fd_pr__pfet_01v8#dbody)	voltage
	339	v(m.xm168.msky130_fd_pr__pfet_01v8#body)	voltage
	340	v(m.xm168.msky130_fd_pr__pfet_01v8#sbody)	voltage
	341	v(m.xm167.msky130_fd_pr__pfet_01v8#dbody)	voltage
	342	v(m.xm167.msky130_fd_pr__pfet_01v8#body)	voltage
	343	v(m.xm167.msky130_fd_pr__pfet_01v8#sbody)	voltage
	344	v(m.xm166.msky130_fd_pr__pfet_01v8#dbody)	voltage
	345	v(m.xm166.msky130_fd_pr__pfet_01v8#body)	voltage
	346	v(m.xm166.msky130_fd_pr__pfet_01v8#sbody)	voltage
	347	v(m.xm165.msky130_fd_pr__pfet_01v8#dbody)	voltage
	348	v(m.xm165.msky130_fd_pr__pfet_01v8#body)	voltage
	349	v(m.xm165.msky130_fd_pr__pfet_01v8#sbody)	voltage
	350	v(m.xm164.msky130_fd_pr__pfet_01v8#dbody)	voltage
	351	v(m.xm164.msky130_fd_pr__pfet_01v8#body)	voltage
	352	v(m.xm164.msky130_fd_pr__pfet_01v8#sbody)	voltage
	353	v(m.xm163.msky130_fd_pr__pfet_01v8#dbody)	voltage
	354	v(m.xm163.msky130_fd_pr__pfet_01v8#body)	voltage
	355	v(m.xm163.msky130_fd_pr__pfet_01v8#sbody)	voltage
	356	v(m.xm162.msky130_fd_pr__pfet_01v8#dbody)	voltage
	357	v(m.xm162.msky130_fd_pr__pfet_01v8#body)	voltage
	358	v(m.xm162.msky130_fd_pr__pfet_01v8#sbody)	voltage
	359	v(m.xm161.msky130_fd_pr__pfet_01v8#dbody)	voltage
	360	v(m.xm161.msky130_fd_pr__pfet_01v8#body)	voltage
	361	v(m.xm161.msky130_fd_pr__pfet_01v8#sbody)	voltage
	362	v(m.xm160.msky130_fd_pr__pfet_01v8#dbody)	voltage
	363	v(m.xm160.msky130_fd_pr__pfet_01v8#body)	voltage
	364	v(m.xm160.msky130_fd_pr__pfet_01v8#sbody)	voltage
	365	v(m.xm159.msky130_fd_pr__pfet_01v8#dbody)	voltage
	366	v(m.xm159.msky130_fd_pr__pfet_01v8#body)	voltage
	367	v(m.xm159.msky130_fd_pr__pfet_01v8#sbody)	voltage
	368	v(m.xm158.msky130_fd_pr__pfet_01v8#dbody)	voltage
	369	v(m.xm158.msky130_fd_pr__pfet_01v8#body)	voltage
	370	v(m.xm158.msky130_fd_pr__pfet_01v8#sbody)	voltage
	371	v(m.xm157.msky130_fd_pr__pfet_01v8#dbody)	voltage
	372	v(m.xm157.msky130_fd_pr__pfet_01v8#body)	voltage
	373	v(m.xm157.msky130_fd_pr__pfet_01v8#sbody)	voltage
	374	v(m.xm156.msky130_fd_pr__pfet_01v8#dbody)	voltage
	375	v(m.xm156.msky130_fd_pr__pfet_01v8#body)	voltage
	376	v(m.xm156.msky130_fd_pr__pfet_01v8#sbody)	voltage
	377	v(m.xm155.msky130_fd_pr__pfet_01v8#dbody)	voltage
	378	v(m.xm155.msky130_fd_pr__pfet_01v8#body)	voltage
	379	v(m.xm155.msky130_fd_pr__pfet_01v8#sbody)	voltage
	380	v(m.xm154.msky130_fd_pr__pfet_01v8#dbody)	voltage
	381	v(m.xm154.msky130_fd_pr__pfet_01v8#body)	voltage
	382	v(m.xm154.msky130_fd_pr__pfet_01v8#sbody)	voltage
	383	v(m.xm153.msky130_fd_pr__pfet_01v8#dbody)	voltage
	384	v(m.xm153.msky130_fd_pr__pfet_01v8#body)	voltage
	385	v(m.xm153.msky130_fd_pr__pfet_01v8#sbody)	voltage
	386	v(m.xm152.msky130_fd_pr__pfet_01v8#dbody)	voltage
	387	v(m.xm152.msky130_fd_pr__pfet_01v8#body)	voltage
	388	v(m.xm152.msky130_fd_pr__pfet_01v8#sbody)	voltage
	389	v(m.xm151.msky130_fd_pr__pfet_01v8#dbody)	voltage
	390	v(m.xm151.msky130_fd_pr__pfet_01v8#body)	voltage
	391	v(m.xm151.msky130_fd_pr__pfet_01v8#sbody)	voltage
	392	v(m.xm150.msky130_fd_pr__pfet_01v8#dbody)	voltage
	393	v(m.xm150.msky130_fd_pr__pfet_01v8#body)	voltage
	394	v(m.xm150.msky130_fd_pr__pfet_01v8#sbody)	voltage
	395	v(m.xm149.msky130_fd_pr__pfet_01v8#dbody)	voltage
	396	v(m.xm149.msky130_fd_pr__pfet_01v8#body)	voltage
	397	v(m.xm149.msky130_fd_pr__pfet_01v8#sbody)	voltage
	398	v(m.xm148.msky130_fd_pr__pfet_01v8#dbody)	voltage
	399	v(m.xm148.msky130_fd_pr__pfet_01v8#body)	voltage
	400	v(m.xm148.msky130_fd_pr__pfet_01v8#sbody)	voltage
	401	v(m.xm147.msky130_fd_pr__pfet_01v8#dbody)	voltage
	402	v(m.xm147.msky130_fd_pr__pfet_01v8#body)	voltage
	403	v(m.xm147.msky130_fd_pr__pfet_01v8#sbody)	voltage
	404	v(m.xm146.msky130_fd_pr__pfet_01v8#dbody)	voltage
	405	v(m.xm146.msky130_fd_pr__pfet_01v8#body)	voltage
	406	v(m.xm146.msky130_fd_pr__pfet_01v8#sbody)	voltage
	407	v(m.xm145.msky130_fd_pr__pfet_01v8#dbody)	voltage
	408	v(m.xm145.msky130_fd_pr__pfet_01v8#body)	voltage
	409	v(m.xm145.msky130_fd_pr__pfet_01v8#sbody)	voltage
	410	v(m.xm144.msky130_fd_pr__pfet_01v8#dbody)	voltage
	411	v(m.xm144.msky130_fd_pr__pfet_01v8#body)	voltage
	412	v(m.xm144.msky130_fd_pr__pfet_01v8#sbody)	voltage
	413	v(m.xm143.msky130_fd_pr__pfet_01v8#dbody)	voltage
	414	v(m.xm143.msky130_fd_pr__pfet_01v8#body)	voltage
	415	v(m.xm143.msky130_fd_pr__pfet_01v8#sbody)	voltage
	416	v(m.xm142.msky130_fd_pr__pfet_01v8#dbody)	voltage
	417	v(m.xm142.msky130_fd_pr__pfet_01v8#body)	voltage
	418	v(m.xm142.msky130_fd_pr__pfet_01v8#sbody)	voltage
	419	v(m.xm141.msky130_fd_pr__pfet_01v8#dbody)	voltage
	420	v(m.xm141.msky130_fd_pr__pfet_01v8#body)	voltage
	421	v(m.xm141.msky130_fd_pr__pfet_01v8#sbody)	voltage
	422	v(m.xm140.msky130_fd_pr__pfet_01v8#dbody)	voltage
	423	v(m.xm140.msky130_fd_pr__pfet_01v8#body)	voltage
	424	v(m.xm140.msky130_fd_pr__pfet_01v8#sbody)	voltage
	425	v(m.xm139.msky130_fd_pr__pfet_01v8#dbody)	voltage
	426	v(m.xm139.msky130_fd_pr__pfet_01v8#body)	voltage
	427	v(m.xm139.msky130_fd_pr__pfet_01v8#sbody)	voltage
	428	v(m.xm138.msky130_fd_pr__pfet_01v8#dbody)	voltage
	429	v(m.xm138.msky130_fd_pr__pfet_01v8#body)	voltage
	430	v(m.xm138.msky130_fd_pr__pfet_01v8#sbody)	voltage
	431	v(m.xm137.msky130_fd_pr__pfet_01v8#dbody)	voltage
	432	v(m.xm137.msky130_fd_pr__pfet_01v8#body)	voltage
	433	v(m.xm137.msky130_fd_pr__pfet_01v8#sbody)	voltage
	434	v(m.xm136.msky130_fd_pr__pfet_01v8#dbody)	voltage
	435	v(m.xm136.msky130_fd_pr__pfet_01v8#body)	voltage
	436	v(m.xm136.msky130_fd_pr__pfet_01v8#sbody)	voltage
	437	v(m.xm135.msky130_fd_pr__pfet_01v8#dbody)	voltage
	438	v(m.xm135.msky130_fd_pr__pfet_01v8#body)	voltage
	439	v(m.xm135.msky130_fd_pr__pfet_01v8#sbody)	voltage
	440	v(m.xm134.msky130_fd_pr__pfet_01v8#dbody)	voltage
	441	v(m.xm134.msky130_fd_pr__pfet_01v8#body)	voltage
	442	v(m.xm134.msky130_fd_pr__pfet_01v8#sbody)	voltage
	443	v(m.xm133.msky130_fd_pr__pfet_01v8#dbody)	voltage
	444	v(m.xm133.msky130_fd_pr__pfet_01v8#body)	voltage
	445	v(m.xm133.msky130_fd_pr__pfet_01v8#sbody)	voltage
	446	v(m.xm132.msky130_fd_pr__pfet_01v8#dbody)	voltage
	447	v(m.xm132.msky130_fd_pr__pfet_01v8#body)	voltage
	448	v(m.xm132.msky130_fd_pr__pfet_01v8#sbody)	voltage
	449	v(m.xm131.msky130_fd_pr__pfet_01v8#dbody)	voltage
	450	v(m.xm131.msky130_fd_pr__pfet_01v8#body)	voltage
	451	v(m.xm131.msky130_fd_pr__pfet_01v8#sbody)	voltage
	452	v(m.xm130.msky130_fd_pr__pfet_01v8#dbody)	voltage
	453	v(m.xm130.msky130_fd_pr__pfet_01v8#body)	voltage
	454	v(m.xm130.msky130_fd_pr__pfet_01v8#sbody)	voltage
	455	v(m.xm129.msky130_fd_pr__pfet_01v8#dbody)	voltage
	456	v(m.xm129.msky130_fd_pr__pfet_01v8#body)	voltage
	457	v(m.xm129.msky130_fd_pr__pfet_01v8#sbody)	voltage
	458	v(m.xm128.msky130_fd_pr__pfet_01v8#dbody)	voltage
	459	v(m.xm128.msky130_fd_pr__pfet_01v8#body)	voltage
	460	v(m.xm128.msky130_fd_pr__pfet_01v8#sbody)	voltage
	461	v(m.xm127.msky130_fd_pr__pfet_01v8#dbody)	voltage
	462	v(m.xm127.msky130_fd_pr__pfet_01v8#body)	voltage
	463	v(m.xm127.msky130_fd_pr__pfet_01v8#sbody)	voltage
	464	v(m.xm126.msky130_fd_pr__pfet_01v8#dbody)	voltage
	465	v(m.xm126.msky130_fd_pr__pfet_01v8#body)	voltage
	466	v(m.xm126.msky130_fd_pr__pfet_01v8#sbody)	voltage
	467	v(m.xm125.msky130_fd_pr__pfet_01v8#dbody)	voltage
	468	v(m.xm125.msky130_fd_pr__pfet_01v8#body)	voltage
	469	v(m.xm125.msky130_fd_pr__pfet_01v8#sbody)	voltage
	470	v(m.xm124.msky130_fd_pr__pfet_01v8#dbody)	voltage
	471	v(m.xm124.msky130_fd_pr__pfet_01v8#body)	voltage
	472	v(m.xm124.msky130_fd_pr__pfet_01v8#sbody)	voltage
	473	v(m.xm123.msky130_fd_pr__pfet_01v8#dbody)	voltage
	474	v(m.xm123.msky130_fd_pr__pfet_01v8#body)	voltage
	475	v(m.xm123.msky130_fd_pr__pfet_01v8#sbody)	voltage
	476	v(m.xm122.msky130_fd_pr__pfet_01v8#dbody)	voltage
	477	v(m.xm122.msky130_fd_pr__pfet_01v8#body)	voltage
	478	v(m.xm122.msky130_fd_pr__pfet_01v8#sbody)	voltage
	479	v(m.xm121.msky130_fd_pr__pfet_01v8#dbody)	voltage
	480	v(m.xm121.msky130_fd_pr__pfet_01v8#body)	voltage
	481	v(m.xm121.msky130_fd_pr__pfet_01v8#sbody)	voltage
	482	v(m.xm120.msky130_fd_pr__pfet_01v8#dbody)	voltage
	483	v(m.xm120.msky130_fd_pr__pfet_01v8#body)	voltage
	484	v(m.xm120.msky130_fd_pr__pfet_01v8#sbody)	voltage
	485	v(m.xm119.msky130_fd_pr__pfet_01v8#dbody)	voltage
	486	v(m.xm119.msky130_fd_pr__pfet_01v8#body)	voltage
	487	v(m.xm119.msky130_fd_pr__pfet_01v8#sbody)	voltage
	488	v(m.xm118.msky130_fd_pr__pfet_01v8#dbody)	voltage
	489	v(m.xm118.msky130_fd_pr__pfet_01v8#body)	voltage
	490	v(m.xm118.msky130_fd_pr__pfet_01v8#sbody)	voltage
	491	v(m.xm117.msky130_fd_pr__pfet_01v8#dbody)	voltage
	492	v(m.xm117.msky130_fd_pr__pfet_01v8#body)	voltage
	493	v(m.xm117.msky130_fd_pr__pfet_01v8#sbody)	voltage
	494	v(m.xm116.msky130_fd_pr__pfet_01v8#dbody)	voltage
	495	v(m.xm116.msky130_fd_pr__pfet_01v8#body)	voltage
	496	v(m.xm116.msky130_fd_pr__pfet_01v8#sbody)	voltage
	497	v(m.xm115.msky130_fd_pr__pfet_01v8#dbody)	voltage
	498	v(m.xm115.msky130_fd_pr__pfet_01v8#body)	voltage
	499	v(m.xm115.msky130_fd_pr__pfet_01v8#sbody)	voltage
	500	v(m.xm114.msky130_fd_pr__pfet_01v8#dbody)	voltage
	501	v(m.xm114.msky130_fd_pr__pfet_01v8#body)	voltage
	502	v(m.xm114.msky130_fd_pr__pfet_01v8#sbody)	voltage
	503	v(m.xm113.msky130_fd_pr__pfet_01v8#dbody)	voltage
	504	v(m.xm113.msky130_fd_pr__pfet_01v8#body)	voltage
	505	v(m.xm113.msky130_fd_pr__pfet_01v8#sbody)	voltage
	506	v(m.xm112.msky130_fd_pr__pfet_01v8#dbody)	voltage
	507	v(m.xm112.msky130_fd_pr__pfet_01v8#body)	voltage
	508	v(m.xm112.msky130_fd_pr__pfet_01v8#sbody)	voltage
	509	v(m.xm111.msky130_fd_pr__pfet_01v8#dbody)	voltage
	510	v(m.xm111.msky130_fd_pr__pfet_01v8#body)	voltage
	511	v(m.xm111.msky130_fd_pr__pfet_01v8#sbody)	voltage
	512	v(m.xm110.msky130_fd_pr__pfet_01v8#dbody)	voltage
	513	v(m.xm110.msky130_fd_pr__pfet_01v8#body)	voltage
	514	v(m.xm110.msky130_fd_pr__pfet_01v8#sbody)	voltage
	515	v(m.xm109.msky130_fd_pr__pfet_01v8#dbody)	voltage
	516	v(m.xm109.msky130_fd_pr__pfet_01v8#body)	voltage
	517	v(m.xm109.msky130_fd_pr__pfet_01v8#sbody)	voltage
	518	v(m.xm108.msky130_fd_pr__pfet_01v8#dbody)	voltage
	519	v(m.xm108.msky130_fd_pr__pfet_01v8#body)	voltage
	520	v(m.xm108.msky130_fd_pr__pfet_01v8#sbody)	voltage
	521	v(m.xm107.msky130_fd_pr__pfet_01v8#dbody)	voltage
	522	v(m.xm107.msky130_fd_pr__pfet_01v8#body)	voltage
	523	v(m.xm107.msky130_fd_pr__pfet_01v8#sbody)	voltage
	524	v(m.xm106.msky130_fd_pr__pfet_01v8#dbody)	voltage
	525	v(m.xm106.msky130_fd_pr__pfet_01v8#body)	voltage
	526	v(m.xm106.msky130_fd_pr__pfet_01v8#sbody)	voltage
	527	v(m.xm105.msky130_fd_pr__pfet_01v8#dbody)	voltage
	528	v(m.xm105.msky130_fd_pr__pfet_01v8#body)	voltage
	529	v(m.xm105.msky130_fd_pr__pfet_01v8#sbody)	voltage
	530	v(m.xm104.msky130_fd_pr__pfet_01v8#dbody)	voltage
	531	v(m.xm104.msky130_fd_pr__pfet_01v8#body)	voltage
	532	v(m.xm104.msky130_fd_pr__pfet_01v8#sbody)	voltage
	533	v(m.xm103.msky130_fd_pr__pfet_01v8#dbody)	voltage
	534	v(m.xm103.msky130_fd_pr__pfet_01v8#body)	voltage
	535	v(m.xm103.msky130_fd_pr__pfet_01v8#sbody)	voltage
	536	v(m.xm102.msky130_fd_pr__pfet_01v8#dbody)	voltage
	537	v(m.xm102.msky130_fd_pr__pfet_01v8#body)	voltage
	538	v(m.xm102.msky130_fd_pr__pfet_01v8#sbody)	voltage
	539	v(m.xm101.msky130_fd_pr__pfet_01v8#dbody)	voltage
	540	v(m.xm101.msky130_fd_pr__pfet_01v8#body)	voltage
	541	v(m.xm101.msky130_fd_pr__pfet_01v8#sbody)	voltage
	542	v(m.xm100.msky130_fd_pr__pfet_01v8#dbody)	voltage
	543	v(m.xm100.msky130_fd_pr__pfet_01v8#body)	voltage
	544	v(m.xm100.msky130_fd_pr__pfet_01v8#sbody)	voltage
	545	v(m.xm99.msky130_fd_pr__pfet_01v8#dbody)	voltage
	546	v(m.xm99.msky130_fd_pr__pfet_01v8#body)	voltage
	547	v(m.xm99.msky130_fd_pr__pfet_01v8#sbody)	voltage
	548	v(m.xm98.msky130_fd_pr__pfet_01v8#dbody)	voltage